; Modified cg.mdp for Pseudo-PBC
define              = -DPOSRES -DPOSRES_WATER
constraints         = none
integrator          = cg          ; Conjugate Gradient minimization
nsteps              = 250000      ; Max steps
nstlist             = 10
cutoff-scheme       = Verlet
ns_type             = simple      ; Use simple for minimization
rlist               = 333.3       ; Large cutoff for vacuum
coulombtype         = cutoff      ; Use cutoff with large radius for vacuum
rcoulomb            = 333.3       ; Large cutoff for vacuum
vdwtype             = cutoff      ; Use cutoff with large radius for vacuum
rvdw                = 333.3       ; Large cutoff for vacuum
emtol               = 750         ; Max force target
emstep              = 0.01        ; 
