; GROMACS Minimization in Vacuum (Pseudo-PBC)
;
define              = -DPOSRES -DPOSRES_WATER ; Use if you have position restraints
integrator          = steep                    ; Steepest descent minimization
nsteps              = 50000                    ; Max steps (use more than 50k for safety)

; Neighbor searching parameters for pseudo-PBC
nstlist             = 10
cutoff-scheme       = Verlet
ns_type             = simple                   ; Simpler neighbor search for EM
rlist               = 333.3                    ; Neighbor list cutoff (must be large)

; Electrostatics and VdW for vacuum
coulombtype         = cutoff                   ; Simple cutoff
rcoulomb            = 333.3                    ; Large cutoff simulates vacuum (must be < 0.5 * Box Vector)
vdwtype             = cutoff                   ; Simple cutoff
rvdw                = 333.3                    ; Large cutoff simulates vacuum

; Energy minimizing settings
emtol               = 200.0                    ; Stop when the maximum force is below 200 kJ/mol/nm
emstep              = 0.01                     ; Initial step-size 
